file 607999 1762352645                                          
version 3
run General-0-20251104-11:47:08-30915
attr configname General
attr datetime 20251104-11:47:08
attr datetimef 20251104-114708
attr experiment General
attr inifile omnetpp.ini
attr iterationvars ""
attr iterationvarsd ""
attr iterationvarsf ""
attr measurement ""
attr network ModbusTest1
attr processid 30915
attr repetition 0
attr replication #0
attr resultdir results
attr runnumber 0
attr seedset 0
config image-path /home/llw/omnetpp-6.1/WorkSpace/inet4.5/images
config network ModbusTest1
config sim-time-limit 20s
config *.*.eth[*].bitrate 100Mbps
config *.numClients 2
config *.operatorStation.numApps 2
config *.operatorStation.app[0].typename OperatorStationApp
config *.operatorStation.app[0].connectAddress "\"server\""
config *.operatorStation.app[0].connectPort 1000
config *.operatorStation.app[0].interval 0.5s
config *.operatorStation.app[1].typename OperatorStationApp2
config *.operatorStation.app[1].connectAddress "\"server\""
config *.operatorStation.app[1].connectPort 666
config *.operatorStation.app[1].modbusRequest "\"client[0] 01 10 000B 0009 00 01 00 02 00 03 00 04 00 05 00 06 00 07 00 08 00 09;client[0] 01 05 0000 0001 00\""
config *.operatorStation.app[1].sendTime "\"4 5\""
config *.operatorStation.app[1].seed 0
config *.server.numApps 3
config *.server.app[0].typename ModbusMasterApp
config *.server.app[0].numConnect 2
config *.server.app[0].configFile "\"MasterConfig.json\""
config *.server.app[0].readInterval 0.5s
config *.server.app[1].typename ModbusTcpServerApp
config *.server.app[1].localPort 1000
config *.server.app[2].typename TransitApp
config *.server.app[2].localPort 666
config **.tcp.typename Tcp
config **.tcp.advertisedWindow 65535
config **.tcp.delayedAcksEnabled false
config **.tcp.nagleEnabled false
config **.tcp.limitedTransmitEnabled true
config **.tcp.increasedIWEnabled true
config **.tcp.sackSupport true
config **.tcp.windowScalingSupport true
config **.tcp.timestampSupport true
config **.tcp.mss 1452
config **.tcp.tcpAlgorithmClass "\"TcpReno\""
config **.crcMode "\"computed\""
config **.fcsMode "\"computed\""
config *.server.numPcapRecorders 1
config *.server.pcapRecorder[*].pcapFile "\"results/server.pcap\""
config *.visualizer.interfaceTableVisualizer.displayInterfaceTables true

vector 0 ModbusTest1.operatorStation.ethernet.macHeaderInserter incomingPacketLengths:vector ETV
attr interpolationmode none
attr recordingmode vector
attr source "packetLength(merge(packetPushedIn, packetPulledIn))"
attr title "incoming packet lengths"
attr unit b
0	592156 32 33 107 0 0.00002954 2 416 480 896 403456
vector 2 ModbusTest1.operatorStation.ethernet.macHeaderInserter outgoingPacketLengths:vector ETV
attr interpolationmode none
attr recordingmode vector
attr source "packetLength(merge(packetPushedOut, packetPulledOut))"
attr title "outgoing packet lengths"
attr unit b
2	592188 32 33 107 0 0.00002954 2 528 592 1120 629248
vector 8 ModbusTest1.operatorStation.ethernet.paddingInserter incomingPacketLengths:vector ETV
attr interpolationmode none
attr recordingmode vector
attr source "packetLength(merge(packetPushedIn, packetPulledIn))"
attr title "incoming packet lengths"
attr unit b
8	592220 32 33 107 0 0.00002954 2 528 592 1120 629248
vector 10 ModbusTest1.operatorStation.ethernet.paddingInserter outgoingPacketLengths:vector ETV
attr interpolationmode none
attr recordingmode vector
attr source "packetLength(merge(packetPushedOut, packetPulledOut))"
attr title "outgoing packet lengths"
attr unit b
10	592252 34 33 107 0 0.00002954 2 528 592 1120 629248
vector 16 ModbusTest1.operatorStation.ethernet.fcsInserter incomingPacketLengths:vector ETV
attr interpolationmode none
attr recordingmode vector
attr source "packetLength(merge(packetPushedIn, packetPulledIn))"
attr title "incoming packet lengths"
attr unit b
16	592286 34 33 107 0 0.00002954 2 528 592 1120 629248
vector 18 ModbusTest1.operatorStation.ethernet.fcsInserter outgoingPacketLengths:vector ETV
attr interpolationmode none
attr recordingmode vector
attr source "packetLength(merge(packetPushedOut, packetPulledOut))"
attr title "outgoing packet lengths"
attr unit b
18	592320 34 33 107 0 0.00002954 2 560 624 1184 702976
vector 24 ModbusTest1.operatorStation.ethernet.macHeaderChecker incomingPacketLengths:vector ETV
attr interpolationmode none
attr recordingmode vector
attr source "packetLength(merge(packetPushedIn, packetPulledIn))"
attr title "incoming packet lengths"
attr unit b
24	592354 22 102 102 0.00002954 0.00002954 1 592 592 592 350464
vector 26 ModbusTest1.operatorStation.ethernet.macHeaderChecker outgoingPacketLengths:vector ETV
attr interpolationmode none
attr recordingmode vector
attr source "packetLength(merge(packetPushedOut, packetPulledOut))"
attr title "outgoing packet lengths"
attr unit b
26	592376 22 102 102 0.00002954 0.00002954 1 480 480 480 230400
vector 36 ModbusTest1.operatorStation.ethernet.fcsChecker incomingPacketLengths:vector ETV
attr interpolationmode none
attr recordingmode vector
attr source "packetLength(merge(packetPushedIn, packetPulledIn))"
attr title "incoming packet lengths"
attr unit b
36	592398 22 102 102 0.00002954 0.00002954 1 624 624 624 389376
vector 38 ModbusTest1.operatorStation.ethernet.fcsChecker outgoingPacketLengths:vector ETV
attr interpolationmode none
attr recordingmode vector
attr source "packetLength(merge(packetPushedOut, packetPulledOut))"
attr title "outgoing packet lengths"
attr unit b
38	592420 22 102 102 0.00002954 0.00002954 1 592 592 592 350464
vector 52 ModbusTest1.operatorStation.eth[0].macLayer.queue queueLength:vector ETV
attr autoWarmupFilter false
attr interpolationmode sample-hold
attr recordingmode vector
attr source "warmup(atomic(constant0(packetPushEnded) + count(packetPushStarted) - count(packetPulled) - count(packetRemoved) - count(packetDropped)))"
attr title "queue length"
attr unit pk
52	592442 105 0 108 0 0.00002954 9 0 1 2 2
vector 53 ModbusTest1.operatorStation.eth[0].macLayer.queue queueBitLength:vector ETV
attr autoWarmupFilter false
attr interpolationmode sample-hold
attr recordingmode vector
attr source "warmup(atomic(constant0(packetPushEnded) + sum(packetLength(packetPushStarted)) - sum(packetLength(packetPulled)) - sum(packetLength(packetRemoved)) - sum(packetLength(packetDropped))))"
attr title "queue bit length"
attr unit b
53	592547 109 0 108 0 0.00002954 9 0 624 1184 702976
vector 54 ModbusTest1.operatorStation.eth[0].macLayer.queue queueingTime:vector ETV
attr interpolationmode none
attr recordingmode vector
attr source queueingTime(packetPulled)
attr title "queueing times"
attr unit s
54	592656 30 35 108 0 0.00002954 2 0 0 0 0
vector 55 ModbusTest1.operatorStation.eth[0].macLayer.queue incomingPacketLengths:vector ETV
attr interpolationmode none
attr recordingmode vector
attr source packetLength(packetPushStarted)
attr title "incoming packet lengths"
attr unit b
55	592686 34 33 107 0 0.00002954 2 560 624 1184 702976
vector 57 ModbusTest1.operatorStation.eth[0].macLayer.queue outgoingPacketLengths:vector ETV
attr interpolationmode none
attr recordingmode vector
attr source packetLength(packetPulled)
attr title "outgoing packet lengths"
attr unit b
57	592720 34 35 108 0 0.00002954 2 560 624 1184 702976
vector 63 ModbusTest1.operatorStation.eth[0].macLayer.server incomingPacketLengths:vector ETV
attr interpolationmode none
attr recordingmode vector
attr source packetLength(packetPulled)
attr title "incoming packet lengths"
attr unit b
63	592754 34 35 108 0 0.00002954 2 560 624 1184 702976
vector 65 ModbusTest1.operatorStation.eth[0].macLayer.server outgoingPacketLengths:vector ETV
attr interpolationmode none
attr recordingmode vector
attr source packetLength(packetPushed)
attr title "outgoing packet lengths"
attr unit b
65	592788 34 35 108 0 0.00002954 2 560 624 1184 702976
vector 67 ModbusTest1.operatorStation.eth[0].macLayer.outboundEmitter incomingPacketLengths:vector ETV
attr interpolationmode none
attr recordingmode vector
attr source "packetLength(merge(packetPushedIn, packetPulledIn))"
attr title "incoming packet lengths"
attr unit b
67	592822 34 35 108 0 0.00002954 2 560 624 1184 702976
vector 69 ModbusTest1.operatorStation.eth[0].macLayer.outboundEmitter outgoingPacketLengths:vector ETV
attr interpolationmode none
attr recordingmode vector
attr source "packetLength(merge(packetPushedOut, packetPulledOut))"
attr title "outgoing packet lengths"
attr unit b
69	592856 34 35 108 0 0.00002954 2 560 624 1184 702976
vector 75 ModbusTest1.operatorStation.eth[0].macLayer.fcsChecker incomingPacketLengths:vector ETV
attr interpolationmode none
attr recordingmode vector
attr source "packetLength(merge(packetPushedIn, packetPulledIn))"
attr title "incoming packet lengths"
attr unit b
75	592890 22 102 102 0.00002954 0.00002954 1 624 624 624 389376
vector 77 ModbusTest1.operatorStation.eth[0].macLayer.fcsChecker outgoingPacketLengths:vector ETV
attr interpolationmode none
attr recordingmode vector
attr source "packetLength(merge(packetPushedOut, packetPulledOut))"
attr title "outgoing packet lengths"
attr unit b
77	592912 22 102 102 0.00002954 0.00002954 1 624 624 624 389376
vector 87 ModbusTest1.operatorStation.eth[0].macLayer.inboundEmitter incomingPacketLengths:vector ETV
attr interpolationmode none
attr recordingmode vector
attr source "packetLength(merge(packetPushedIn, packetPulledIn))"
attr title "incoming packet lengths"
attr unit b
87	592934 22 102 102 0.00002954 0.00002954 1 624 624 624 389376
vector 89 ModbusTest1.operatorStation.eth[0].macLayer.inboundEmitter outgoingPacketLengths:vector ETV
attr interpolationmode none
attr recordingmode vector
attr source "packetLength(merge(packetPushedOut, packetPulledOut))"
attr title "outgoing packet lengths"
attr unit b
89	592956 22 102 102 0.00002954 0.00002954 1 624 624 624 389376
vector 95 ModbusTest1.operatorStation.eth[0].phyLayer.phyHeaderInserter incomingPacketLengths:vector ETV
attr interpolationmode none
attr recordingmode vector
attr source "packetLength(merge(packetPushedIn, packetPulledIn))"
attr title "incoming packet lengths"
attr unit b
95	592978 34 35 108 0 0.00002954 2 560 624 1184 702976
vector 97 ModbusTest1.operatorStation.eth[0].phyLayer.phyHeaderInserter outgoingPacketLengths:vector ETV
attr interpolationmode none
attr recordingmode vector
attr source "packetLength(merge(packetPushedOut, packetPulledOut))"
attr title "outgoing packet lengths"
attr unit b
97	593012 34 35 108 0 0.00002954 2 624 688 1312 862720
vector 103 ModbusTest1.operatorStation.eth[0].phyLayer.interFrameGapInserter interpacketGap:vector ETV
attr interpolationmode sample-hold
attr recordingmode vector
attr source "count(interpacketGapStarted) - count(interpacketGapEnded)"
attr title "interpacket gap state"
attr type int
103	593046 102 0 122 0 0.00003674 6 0 1 2 2
vector 104 ModbusTest1.operatorStation.eth[0].phyLayer.outboundEmitter incomingPacketLengths:vector ETV
attr interpolationmode none
attr recordingmode vector
attr source "packetLength(merge(packetPushedIn, packetPulledIn))"
attr title "incoming packet lengths"
attr unit b
104	593148 36 35 108 0 0.00002954 2 624 688 1312 862720
vector 106 ModbusTest1.operatorStation.eth[0].phyLayer.outboundEmitter outgoingPacketLengths:vector ETV
attr interpolationmode none
attr recordingmode vector
attr source "packetLength(merge(packetPushedOut, packetPulledOut))"
attr title "outgoing packet lengths"
attr unit b
106	593184 36 35 108 0 0.00002954 2 624 688 1312 862720
vector 112 ModbusTest1.operatorStation.eth[0].phyLayer.transmitter transmitting:vector ETV
attr interpolationmode sample-hold
attr recordingmode vector
attr source "count(transmissionStarted) - count(transmissionEnded)"
attr title "transmitting state"
attr type int
112	593220 93 0 119 0 0.00003578 6 0 1 2 2
vector 115 ModbusTest1.operatorStation.eth[0].phyLayer.transmitter transmissionTime:vector ETV
attr interpolationmode none
attr recordingmode vector
attr source packetDuration(transmissionEnded)
attr title "transmission time"
attr unit s
115	593313 55 37 119 0.00000688 0.00003578 2 6.24e-06 6.88e-06 1.312e-05 8.6272e-11
vector 117 ModbusTest1.operatorStation.eth[0].phyLayer.phyHeaderChecker incomingPacketLengths:vector ETV
attr interpolationmode none
attr recordingmode vector
attr source "packetLength(merge(packetPushedIn, packetPulledIn))"
attr title "incoming packet lengths"
attr unit b
117	593368 23 102 102 0.00002954 0.00002954 1 688 688 688 473344
vector 119 ModbusTest1.operatorStation.eth[0].phyLayer.phyHeaderChecker outgoingPacketLengths:vector ETV
attr interpolationmode none
attr recordingmode vector
attr source "packetLength(merge(packetPushedOut, packetPulledOut))"
attr title "outgoing packet lengths"
attr unit b
119	593391 23 102 102 0.00002954 0.00002954 1 624 624 624 389376
vector 129 ModbusTest1.operatorStation.eth[0].phyLayer.inboundEmitter incomingPacketLengths:vector ETV
attr interpolationmode none
attr recordingmode vector
attr source "packetLength(merge(packetPushedIn, packetPulledIn))"
attr title "incoming packet lengths"
attr unit b
129	593414 23 102 102 0.00002954 0.00002954 1 688 688 688 473344
vector 131 ModbusTest1.operatorStation.eth[0].phyLayer.inboundEmitter outgoingPacketLengths:vector ETV
attr interpolationmode none
attr recordingmode vector
attr source "packetLength(merge(packetPushedOut, packetPulledOut))"
attr title "outgoing packet lengths"
attr unit b
131	593437 23 102 102 0.00002954 0.00002954 1 688 688 688 473344
vector 138 ModbusTest1.operatorStation.eth[0].phyLayer.receiver receptionTime:vector ETV
attr interpolationmode none
attr recordingmode vector
attr source packetDuration(receptionEnded)
attr title "reception time"
attr unit s
138	593460 28 102 102 0.00002954 0.00002954 1 6.88e-06 6.88e-06 6.88e-06 4.73344e-11
vector 142 ModbusTest1.operatorStation.eth[1].macLayer.queue queueLength:vector ETV
attr autoWarmupFilter false
attr interpolationmode sample-hold
attr recordingmode vector
attr source "warmup(atomic(constant0(packetPushEnded) + count(packetPushStarted) - count(packetPulled) - count(packetRemoved) - count(packetDropped)))"
attr title "queue length"
attr unit pk
142	593488 50 0 0 0 0 5 0 0 0 0
vector 143 ModbusTest1.operatorStation.eth[1].macLayer.queue queueBitLength:vector ETV
attr autoWarmupFilter false
attr interpolationmode sample-hold
attr recordingmode vector
attr source "warmup(atomic(constant0(packetPushEnded) + sum(packetLength(packetPushStarted)) - sum(packetLength(packetPulled)) - sum(packetLength(packetRemoved)) - sum(packetLength(packetDropped))))"
attr title "queue bit length"
attr unit b
143	593538 50 0 0 0 0 5 0 0 0 0
vector 193 ModbusTest1.operatorStation.eth[1].phyLayer.interFrameGapInserter interpacketGap:vector ETV
attr interpolationmode sample-hold
attr recordingmode vector
attr source "count(interpacketGapStarted) - count(interpacketGapEnded)"
attr title "interpacket gap state"
attr type int
193	593588 20 0 0 0 0 2 0 0 0 0
vector 202 ModbusTest1.operatorStation.eth[1].phyLayer.transmitter transmitting:vector ETV
attr interpolationmode sample-hold
attr recordingmode vector
attr source "count(transmissionStarted) - count(transmissionEnded)"
attr title "transmitting state"
attr type int
202	593608 20 0 0 0 0 2 0 0 0 0
vector 240 ModbusTest1.operatorStation.udp passedUpPk:vector(count) ETV
attr interpolationmode none
attr recordingmode vector(count)
attr source packetSentToUpper
attr title "packets passed up, count"
240	593628 10 0 0 0 0 1 0 0 0 0
vector 241 ModbusTest1.operatorStation.udp droppedPkWrongPort:vector(count) ETV
attr interpolationmode none
attr recordingmode vector(count)
attr source packetDropReasonIsNoPortFound(packetDropped)
attr title "packets dropped (wrong port), count"
241	593638 10 0 0 0 0 1 0 0 0 0
vector 242 ModbusTest1.operatorStation.udp droppedPkBadChecksum:vector(count) ETV
attr interpolationmode none
attr recordingmode vector(count)
attr source packetDropReasonIsIncorrectlyReceived(packetDropped)
attr title "packets dropped (checksum error), count"
242	593648 10 0 0 0 0 1 0 0 0 0
vector 246 ModbusTest1.operatorStation.app[0] numActiveSessions:vector ETV
attr autoWarmupFilter false
attr interpolationmode sample-hold
attr recordingmode vector
attr source warmup(sum(connect))
attr title "number of active sessions"
246	593658 10 0 0 0 0 1 0 0 0 0
vector 250 ModbusTest1.operatorStation.app[1] numActiveSessions:vector ETV
attr autoWarmupFilter false
attr interpolationmode sample-hold
attr recordingmode vector
attr source warmup(sum(connect))
attr title "number of active sessions"
250	593668 21 0 19 0 0 2 0 1 1 1
vector 251 ModbusTest1.switch1.bridging.directionReverser.reverser incomingPacketLengths:vector ETV
attr interpolationmode none
attr recordingmode vector
attr source "packetLength(merge(packetPushedIn, packetPulledIn))"
attr title "incoming packet lengths"
attr unit b
251	593689 155 38 120 0.00000693 0.00003583 7 368 480 3072 1365504
vector 253 ModbusTest1.switch1.bridging.directionReverser.reverser outgoingPacketLengths:vector ETV
attr interpolationmode none
attr recordingmode vector
attr source "packetLength(merge(packetPushedOut, packetPulledOut))"
attr title "outgoing packet lengths"
attr unit b
253	593844 155 38 120 0.00000693 0.00003583 7 368 480 3072 1365504
vector 261 ModbusTest1.switch1.bridging.interfaceRelay.learner incomingPacketLengths:vector ETV
attr interpolationmode none
attr recordingmode vector
attr source "packetLength(merge(packetPushedIn, packetPulledIn))"
attr title "incoming packet lengths"
attr unit b
261	593999 155 38 120 0.00000693 0.00003583 7 368 480 3072 1365504
vector 263 ModbusTest1.switch1.bridging.interfaceRelay.learner outgoingPacketLengths:vector ETV
attr interpolationmode none
attr recordingmode vector
attr source "packetLength(merge(packetPushedOut, packetPulledOut))"
attr title "outgoing packet lengths"
attr unit b
263	594154 155 38 120 0.00000693 0.00003583 7 368 480 3072 1365504
vector 270 ModbusTest1.switch1.ethernet.macHeaderInserter incomingPacketLengths:vector ETV
attr interpolationmode none
attr recordingmode vector
attr source "packetLength(merge(packetPushedIn, packetPulledIn))"
attr title "incoming packet lengths"
attr unit b
270	594309 155 38 120 0.00000693 0.00003583 7 368 480 3072 1365504
vector 272 ModbusTest1.switch1.ethernet.macHeaderInserter outgoingPacketLengths:vector ETV
attr interpolationmode none
attr recordingmode vector
attr source "packetLength(merge(packetPushedOut, packetPulledOut))"
attr title "outgoing packet lengths"
attr unit b
272	594464 155 38 120 0.00000693 0.00003583 7 480 592 3856 2141440
vector 278 ModbusTest1.switch1.ethernet.paddingInserter incomingPacketLengths:vector ETV
attr interpolationmode none
attr recordingmode vector
attr source "packetLength(merge(packetPushedIn, packetPulledIn))"
attr title "incoming packet lengths"
attr unit b
278	594619 155 38 120 0.00000693 0.00003583 7 480 592 3856 2141440
vector 280 ModbusTest1.switch1.ethernet.paddingInserter outgoingPacketLengths:vector ETV
attr interpolationmode none
attr recordingmode vector
attr source "packetLength(merge(packetPushedOut, packetPulledOut))"
attr title "outgoing packet lengths"
attr unit b
280	594774 155 38 120 0.00000693 0.00003583 7 480 592 3856 2141440
vector 286 ModbusTest1.switch1.ethernet.fcsInserter incomingPacketLengths:vector ETV
attr interpolationmode none
attr recordingmode vector
attr source "packetLength(merge(packetPushedIn, packetPulledIn))"
attr title "incoming packet lengths"
attr unit b
286	594929 155 38 120 0.00000693 0.00003583 7 480 592 3856 2141440
vector 288 ModbusTest1.switch1.ethernet.fcsInserter outgoingPacketLengths:vector ETV
attr interpolationmode none
attr recordingmode vector
attr source "packetLength(merge(packetPushedOut, packetPulledOut))"
attr title "outgoing packet lengths"
attr unit b
288	595084 155 38 120 0.00000693 0.00003583 7 512 624 4080 2395392
vector 294 ModbusTest1.switch1.ethernet.macHeaderChecker incomingPacketLengths:vector ETV
attr interpolationmode none
attr recordingmode vector
attr source "packetLength(merge(packetPushedIn, packetPulledIn))"
attr title "incoming packet lengths"
attr unit b
294	595239 155 38 120 0.00000693 0.00003583 7 480 592 3856 2141440
vector 296 ModbusTest1.switch1.ethernet.macHeaderChecker outgoingPacketLengths:vector ETV
attr interpolationmode none
attr recordingmode vector
attr source "packetLength(merge(packetPushedOut, packetPulledOut))"
attr title "outgoing packet lengths"
attr unit b
296	595394 155 38 120 0.00000693 0.00003583 7 368 480 3072 1365504
vector 306 ModbusTest1.switch1.ethernet.fcsChecker incomingPacketLengths:vector ETV
attr interpolationmode none
attr recordingmode vector
attr source "packetLength(merge(packetPushedIn, packetPulledIn))"
attr title "incoming packet lengths"
attr unit b
306	595549 155 38 120 0.00000693 0.00003583 7 512 624 4080 2395392
vector 308 ModbusTest1.switch1.ethernet.fcsChecker outgoingPacketLengths:vector ETV
attr interpolationmode none
attr recordingmode vector
attr source "packetLength(merge(packetPushedOut, packetPulledOut))"
attr title "outgoing packet lengths"
attr unit b
308	595704 155 38 120 0.00000693 0.00003583 7 480 592 3856 2141440
vector 358 ModbusTest1.switch1.eth[0].macLayer.queue queueLength:vector ETV
attr autoWarmupFilter false
attr interpolationmode sample-hold
attr recordingmode vector
attr source "warmup(atomic(constant0(packetPushEnded) + count(packetPushStarted) - count(packetPulled) - count(packetRemoved) - count(packetDropped)))"
attr title "queue length"
attr unit pk
358	595859 90 0 84 0 0.00002261 7 0 1 1 1
vector 359 ModbusTest1.switch1.eth[0].macLayer.queue queueBitLength:vector ETV
attr autoWarmupFilter false
attr interpolationmode sample-hold
attr recordingmode vector
attr source "warmup(atomic(constant0(packetPushEnded) + sum(packetLength(packetPushStarted)) - sum(packetLength(packetPulled)) - sum(packetLength(packetRemoved)) - sum(packetLength(packetDropped))))"
attr title "queue bit length"
attr unit b
359	595949 92 0 84 0 0.00002261 7 0 624 624 389376
vector 360 ModbusTest1.switch1.eth[0].macLayer.queue queueingTime:vector ETV
attr interpolationmode none
attr recordingmode vector
attr source queueingTime(packetPulled)
attr title "queueing times"
attr unit s
360	596041 20 84 84 0.00002261 0.00002261 1 0 0 0 0
vector 361 ModbusTest1.switch1.eth[0].macLayer.queue incomingPacketLengths:vector ETV
attr interpolationmode none
attr recordingmode vector
attr source packetLength(packetPushStarted)
attr title "incoming packet lengths"
attr unit b
361	596061 22 82 82 0.00002261 0.00002261 1 624 624 624 389376
vector 363 ModbusTest1.switch1.eth[0].macLayer.queue outgoingPacketLengths:vector ETV
attr interpolationmode none
attr recordingmode vector
attr source packetLength(packetPulled)
attr title "outgoing packet lengths"
attr unit b
363	596083 22 84 84 0.00002261 0.00002261 1 624 624 624 389376
vector 369 ModbusTest1.switch1.eth[0].macLayer.server incomingPacketLengths:vector ETV
attr interpolationmode none
attr recordingmode vector
attr source packetLength(packetPulled)
attr title "incoming packet lengths"
attr unit b
369	596105 22 84 84 0.00002261 0.00002261 1 624 624 624 389376
vector 371 ModbusTest1.switch1.eth[0].macLayer.server outgoingPacketLengths:vector ETV
attr interpolationmode none
attr recordingmode vector
attr source packetLength(packetPushed)
attr title "outgoing packet lengths"
attr unit b
371	596127 22 84 84 0.00002261 0.00002261 1 624 624 624 389376
vector 373 ModbusTest1.switch1.eth[0].macLayer.outboundEmitter incomingPacketLengths:vector ETV
attr interpolationmode none
attr recordingmode vector
attr source "packetLength(merge(packetPushedIn, packetPulledIn))"
attr title "incoming packet lengths"
attr unit b
373	596149 22 84 84 0.00002261 0.00002261 1 624 624 624 389376
vector 375 ModbusTest1.switch1.eth[0].macLayer.outboundEmitter outgoingPacketLengths:vector ETV
attr interpolationmode none
attr recordingmode vector
attr source "packetLength(merge(packetPushedOut, packetPulledOut))"
attr title "outgoing packet lengths"
attr unit b
375	596171 22 84 84 0.00002261 0.00002261 1 624 624 624 389376
vector 381 ModbusTest1.switch1.eth[0].macLayer.fcsChecker incomingPacketLengths:vector ETV
attr interpolationmode none
attr recordingmode vector
attr source "packetLength(merge(packetPushedIn, packetPulledIn))"
attr title "incoming packet lengths"
attr unit b
381	596193 45 39 120 0.00000693 0.00003583 2 560 624 1184 702976
vector 383 ModbusTest1.switch1.eth[0].macLayer.fcsChecker outgoingPacketLengths:vector ETV
attr interpolationmode none
attr recordingmode vector
attr source "packetLength(merge(packetPushedOut, packetPulledOut))"
attr title "outgoing packet lengths"
attr unit b
383	596238 45 39 120 0.00000693 0.00003583 2 560 624 1184 702976
vector 393 ModbusTest1.switch1.eth[0].macLayer.inboundEmitter incomingPacketLengths:vector ETV
attr interpolationmode none
attr recordingmode vector
attr source "packetLength(merge(packetPushedIn, packetPulledIn))"
attr title "incoming packet lengths"
attr unit b
393	596283 45 39 120 0.00000693 0.00003583 2 560 624 1184 702976
vector 395 ModbusTest1.switch1.eth[0].macLayer.inboundEmitter outgoingPacketLengths:vector ETV
attr interpolationmode none
attr recordingmode vector
attr source "packetLength(merge(packetPushedOut, packetPulledOut))"
attr title "outgoing packet lengths"
attr unit b
395	596328 45 39 120 0.00000693 0.00003583 2 560 624 1184 702976
vector 401 ModbusTest1.switch1.eth[0].phyLayer.phyHeaderInserter incomingPacketLengths:vector ETV
attr interpolationmode none
attr recordingmode vector
attr source "packetLength(merge(packetPushedIn, packetPulledIn))"
attr title "incoming packet lengths"
attr unit b
401	596373 22 84 84 0.00002261 0.00002261 1 624 624 624 389376
vector 403 ModbusTest1.switch1.eth[0].phyLayer.phyHeaderInserter outgoingPacketLengths:vector ETV
attr interpolationmode none
attr recordingmode vector
attr source "packetLength(merge(packetPushedOut, packetPulledOut))"
attr title "outgoing packet lengths"
attr unit b
403	596395 22 84 84 0.00002261 0.00002261 1 688 688 688 473344
vector 409 ModbusTest1.switch1.eth[0].phyLayer.interFrameGapInserter interpacketGap:vector ETV
attr interpolationmode sample-hold
attr recordingmode vector
attr source "count(interpacketGapStarted) - count(interpacketGapEnded)"
attr title "interpacket gap state"
attr type int
409	596417 62 0 109 0 0.00003045 4 0 1 1 1
vector 410 ModbusTest1.switch1.eth[0].phyLayer.outboundEmitter incomingPacketLengths:vector ETV
attr interpolationmode none
attr recordingmode vector
attr source "packetLength(merge(packetPushedIn, packetPulledIn))"
attr title "incoming packet lengths"
attr unit b
410	596479 22 84 84 0.00002261 0.00002261 1 688 688 688 473344
vector 412 ModbusTest1.switch1.eth[0].phyLayer.outboundEmitter outgoingPacketLengths:vector ETV
attr interpolationmode none
attr recordingmode vector
attr source "packetLength(merge(packetPushedOut, packetPulledOut))"
attr title "outgoing packet lengths"
attr unit b
412	596501 22 84 84 0.00002261 0.00002261 1 688 688 688 473344
vector 418 ModbusTest1.switch1.eth[0].phyLayer.transmitter transmitting:vector ETV
attr interpolationmode sample-hold
attr recordingmode vector
attr source "count(transmissionStarted) - count(transmissionEnded)"
attr title "transmitting state"
attr type int
418	596523 61 0 101 0 0.00002949 4 0 1 1 1
vector 421 ModbusTest1.switch1.eth[0].phyLayer.transmitter transmissionTime:vector ETV
attr interpolationmode none
attr recordingmode vector
attr source packetDuration(transmissionEnded)
attr title "transmission time"
attr unit s
421	596584 28 101 101 0.00002949 0.00002949 1 6.88e-06 6.88e-06 6.88e-06 4.73344e-11
vector 423 ModbusTest1.switch1.eth[0].phyLayer.phyHeaderChecker incomingPacketLengths:vector ETV
attr interpolationmode none
attr recordingmode vector
attr source "packetLength(merge(packetPushedIn, packetPulledIn))"
attr title "incoming packet lengths"
attr unit b
423	596612 45 39 120 0.00000693 0.00003583 2 624 688 1312 862720
vector 425 ModbusTest1.switch1.eth[0].phyLayer.phyHeaderChecker outgoingPacketLengths:vector ETV
attr interpolationmode none
attr recordingmode vector
attr source "packetLength(merge(packetPushedOut, packetPulledOut))"
attr title "outgoing packet lengths"
attr unit b
425	596657 45 39 120 0.00000693 0.00003583 2 560 624 1184 702976
vector 435 ModbusTest1.switch1.eth[0].phyLayer.inboundEmitter incomingPacketLengths:vector ETV
attr interpolationmode none
attr recordingmode vector
attr source "packetLength(merge(packetPushedIn, packetPulledIn))"
attr title "incoming packet lengths"
attr unit b
435	596702 45 39 120 0.00000693 0.00003583 2 624 688 1312 862720
vector 437 ModbusTest1.switch1.eth[0].phyLayer.inboundEmitter outgoingPacketLengths:vector ETV
attr interpolationmode none
attr recordingmode vector
attr source "packetLength(merge(packetPushedOut, packetPulledOut))"
attr title "outgoing packet lengths"
attr unit b
437	596747 45 39 120 0.00000693 0.00003583 2 624 688 1312 862720
vector 444 ModbusTest1.switch1.eth[0].phyLayer.receiver receptionTime:vector ETV
attr interpolationmode none
attr recordingmode vector
attr source packetDuration(receptionEnded)
attr title "reception time"
attr unit s
444	596792 55 39 120 0.00000693 0.00003583 2 6.24e-06 6.88e-06 1.312e-05 8.6272e-11
vector 448 ModbusTest1.switch1.eth[1].macLayer.queue queueLength:vector ETV
attr autoWarmupFilter false
attr interpolationmode sample-hold
attr recordingmode vector
attr source "warmup(atomic(constant0(packetPushEnded) + count(packetPushStarted) - count(packetPulled) - count(packetRemoved) - count(packetDropped)))"
attr title "queue length"
attr unit pk
448	596847 50 0 0 0 0 5 0 0 0 0
vector 449 ModbusTest1.switch1.eth[1].macLayer.queue queueBitLength:vector ETV
attr autoWarmupFilter false
attr interpolationmode sample-hold
attr recordingmode vector